ID,Name,logS,Smiles
294,stevioside,2.27,O1C(CO)C(O)C(O)C(O)C1OC(=O)[C@@]1([C@@H]2CC[C@]34[C@H](CC[C@@](O[C@@H]5OC(CO)C(O)C(O)C5O[C@H]5OC(CO)C(O)C(O)C5O)(C3)C(C4)=C)[C@@]2(CCC1)C)C
295,sucralose,2.78,ClC1C(O)C(O)C(OC1CO)O[C@@]1(OC(CCl)C(O)C1O)CCl
296,sucrononic_acid,5.3,OC(=O)CN/C(=N\c1ccc(cc1)C#N)/NC1CCCCCCCC1
297,sucrose,0,O1C(CO)C(O)C(O)C(O)C1O[C@@]1(OC(CO)C(O)C1O)CO
298,suosan,2.54,[NaH].OC(=O)CCNC(=O)Nc1ccc([N+](=O)[O-])cc1
299,superaspartame,4.15,O(C(=O)C(NC(=O)C(NC(=O)Nc1ccc(cc1)C#N)CC(O)=O)Cc1ccccc1)C
300,tagatose,-0.05,OC(C(O)C(=O)CO)C(O)CO
301,taxifolin_3-acetate,1.9,O1c2c(C(=O)C(OC(=O)C)C1c1cc(O)c(O)cc1)c(O)cc(O)c2
302,telosmoside_A,3,O1[C@@H](OC2C(O[C@H](OC3C(O[C@@H](OC4CC[C@@]5([C@H](C4)CC[C@H]4[C@@H]5CC(OC(=O)C)[C@@]5(C)[C@@](O)(CC[C@]45O)C(OC(=O)C(CC)C)C)C)CC3OC)C)CC2OC)C)C(O)C(OC)C(O)
303,trans-anethole,1.11,O(C)c1ccc(cc1)\C=C\C
304,trans-cinnamaldehyde,1.7,O=C\C=C\c1ccccc1
305,trehalose,-0.37,O1C(CO)C(O)C(O)C(O)C1O[C@H]1OC(CO)C(O)C(O)C1O
306,tryptophan,1.54,OC(=O)C(N)Cc1c2c([nH]c1)cccc2
307,xylitol,-0.01,OC(C(O)CO)C(O)CO
308,xylobiose,-0.4,O1CC(O)C(O)C(O)C1OC1COC(O)C(O)C1O
309,xylose,-0.28,OC(C(O)CO)C(O)C=O
310,perrilartine,3.3,CC(=C)C1CCC(=CC1)/C=N/O
311,perillaldehyde,1.08,CC(=C)C1CCC(=CC1)C=O
312,hernandulcin,3.13,CC1=CC(=O)[C@@H](CC1)[C@](C)(CCC=C(C)C)O
313,monatine,3.11,O=C(O)[C@@H](N)C[C@@](O)(CC1=NCc2ccccc12)C(=O)O
314,carrelame,5.2,C(=O)(C/N=C(\NC(c1ccccc1)c1ccccc1)/Nc1cc(cc(c1)Cl)Cl)O
315,alitame,3.3,C[C@H](C(=O)NC1C(SC1(C)C)(C)C)NC(=O)[C@H](CC(=O)O)N
316,P4000,3.6,CCCOC1=C(C=C(C=C1)[N+](=O)[O-])N