ID,Name,logS,Smiles
1,1p-4p-6p-3Cl-sucrose,2,ClC1C(O)[C@@](OC1CCl)(OC1OC(CO)C(O)C(O)C1O)CCl
2,1p-4p-2Cl-sucrose,1.48,ClC1C(O)[C@@](OC1CO)(OC1OC(CO)C(O)C(O)C1O)CCl
3,1p-6p-2Cl-sucrose,1.89,ClCC1O[C@](OC2OC(CO)C(O)C(O)C2O)(CCl)C(O)C1O
4,1p-Cl-sucrose,1.3,ClC[C@]1(OC(CO)C(O)C1O)OC1OC(CO)C(O)C(O)C1O
5,4p-Br-4-1p-6p-3Cl-sucrose,3.51,BrC1C(O)[C@@](OC1CCl)(OC1OC(CO)C(Cl)C(O)C1O)CCl
6,4p-F-4-1p-6p-3Cl-sucrose,3,ClC1C(O)C(O)C(OC1CO)O[C@@]1(OC(CCl)C(F)C1O)CCl
7,4-1p-4p-6p-4Br-sucrose,3.88,BrC1C(O)C(O)C(OC1CO)O[C@@]1(OC(CBr)C(Br)C1O)CBr
8,4-1p-4p-6p-4Cl-sucrose,3.32,ClC1C(O)C(O)C(OC1CO)O[C@@]1(OC(CCl)C(Cl)C1O)CCl
9,4-1p-4p-3Cl-sucrose,2.34,ClC1C(O)C(O)C(OC1CO)O[C@@]1(OC(CO)C(Cl)C1O)CCl
10,4-1p-6p-3Br-sucrose,2.9,BrC1C(O)C(O)C(OC1CO)O[C@@]1(OC(CBr)C(O)C1O)CBr
11,4-1p-6p-3Cl-sucrose,2.8,ClC1C(O)C(O)C(OC1CO)O[C@@]1(OC(CCl)C(O)C1O)CCl
12,4-1p-6p-3F-sucrose,1.6,FC1C(O)C(O)C(OC1CO)O[C@@]1(OC(CF)C(O)C1O)CF
13,4-1p-6p-3I-sucrose,2.08,IC1C(O)C(O)C(OC1CO)O[C@@]1(OC(CI)C(O)C1O)CI
14,4-1p-2Cl-sucrose,2.08,ClC1C(O)C(O)C(OC1CO)O[C@@]1(OC(CO)C(O)C1O)CCl
15,4-4p-6p-3Cl-sucrose,2.2,ClC1C(O)C(O)C(OC1CO)O[C@@]1(OC(CCl)C(Cl)C1O)CO
16,4-6-1p-6p-4Cl-sucrose,2.3,ClC1C(O)C(O)C(OC1CCl)O[C@@]1(OC(CCl)C(O)C1O)CCl
17,4-Cl-sucrose,0.7,ClC1C(O)C(O)C(OC1CO)O[C@@]1(OC(CO)C(O)C1O)CO
18,4-F-1p-4p-6p-3Br-sucrose,3,BrC1C(O)[C@@](OC1CBr)(OC1OC(CO)C(F)C(O)C1O)CBr
19,4-F-1p-4p-6p-3Cl-sucrose,2.78,ClC1C(O)[C@@](OC1CCl)(OC1OC(CO)C(F)C(O)C1O)CCl
20,4-O-n-propyl_glycosides_DHC,3.3,O1C(CO)C(O)C(O)C(O[C@H]2OC(C)C(O)C(O)C2O)C1Oc1cc(O)c(C(=O)CCc2cc(O)c(OCCC)cc2)c(O)c1
21,4b-10a-dimethyl-1-2-3-4-5-10-hexahydrofluorene-4a-6a-dicarboxylic_acid,3.19,O[C@@]1([C@@H]2[C@](CCC[C@]2(c2c1cccc2)C)(C(O)=O)C)C(O)=O
22,6p-Cl-sucrose,1.3,ClCC1O[C@](OC2OC(CO)C(O)C(O)C2O)(CO)C(O)C1O
23,6-1p-6p-3Cl-sucrose,1.4,ClCC1OC(O[C@@]2(OC(CCl)C(O)C2O)CCl)C(O)C(O)C1O
24,6-chloro-tryptophan,3,Clc1c2c([nH]cc2CC(N)C(O)=O)ccc1
25,D-tagatose,-0.04,OC(C(O)C(=O)CO)C(O)CO
26,DHQ-3-SIFA-4p-methyl_ether,2.6,O1c2c(C(=O)C(OC(=O)C)C1c1cc(O)c(OC)cc1)c(O)cc(O)c2
27,liquiritin,2.4,O1C(CO)C(O)C(O)C(O)C1Oc1ccc(cc1)C1Oc2c(ccc(O)c2)C(=O)C1
28,N-Acetyl-D-glucosamine,-0.26,OC(C(NC(=O)C)C=O)C(O)C(O)CO
29,Periandrin_I,1.93,O1[C@@H](OC2CC[C@]3([C@@H](CC[C@]4([C@@H]3CC[C@@H]3C5=C[C@](CC[C@]5(CC[C@@]34C)C)(C(O)=O)C)C)C2(C)C)C=O)C(O[C@@H]2OC(C(O)=O)C(O)C(O)C2O)C(O)C(O)C1C(O)=O
30,Periandrin_II,2,O1[C@@H](OC2CC[C@]3([C@@H](CC[C@]4([C@@H]3CC=C3[C@@H]5C[C@](CC[C@]5(CC[C@@]34C)C)(C(O)=O)C)C)C2(C)C)C=O)C(O[C@@H]2OC(C(O)=O)C(O)C(O)C2O)C(O)C(O)C1C(O)=O
31,Periandrin_III,2,O1C(C(O)=O)C(O)C(O)C(OC2OC(C(O)=O)C(O)C(O)C2O)C1OC1CC[C@]2(C(CC[C@@]3(C2CCC2C4=C[C@@](CC[C@@]4(CC[C@@]23C)C)(C(O)=O)C)C)C1(C)C)CO
32,Periandrin_IV,2,O1C(C(O)=O)C(O)C(O)C(OC2OC(C(O)=O)C(O)C(O)C2O)C1OC1CC[C@]2(C(CC[C@@]3(C2CC=C2C4C[C@@](CC[C@@]4(CC[C@@]23C)C)(C(O)=O)C)C)C1(C)C)CO
33,abrusoside_B,2,O1[C@H](OC2CC[C@@]34[C@@H](CC[C@H]5[C@@]3(CC[C@]3(C)[C@]5(CC[C@@H]3C(C)[C@@H]3OC(=O)C(=CC3)C)C)C4)[C@]2(C(O)=O)C)C(O[C@H]2OC(CO)C(O)C(O)C2O)C(O)C(O)C1C(OC)=O
34,abrusoside_C,1.7,O1[C@H](OC2CC[C@@]34[C@@H](CC[C@H]5[C@@]3(CC[C@]3(C)[C@]5(CC[C@@H]3C(C)[C@@H]3OC(=O)C(=CC3)C)C)C4)[C@]2(C(O)=O)C)C(O[C@H]2OC(CO)C(O)C(O)C2O)C(O)C(O)C1CO
35,abrusoside_D,1.88,O1[C@H](OC2CC[C@@]34[C@@H](CC[C@H]5[C@@]3(CC[C@]3(C)[C@]5(CC[C@@H]3C(C)[C@@H]3OC(=O)C(=CC3)C)C)C4)[C@]2(C(O)=O)C)C(O[C@H]2OC(CO)C(O)C(O)C2O)C(O)C(O)C1C(O)=O
36,acesulfame_potassium_CH3CH2CH2_CH3,1.48,S1(OC(C)=C(CCC)C(=O)N1)(=O)=O
37,acesulfame_potassium_CH3CH2_CH3,2.4,S1(OC(C)=C(CC)C(=O)N1)(=O)=O
38,acesulfame_potassium_CH3CH2_H,1.3,S1(OC=C(CC)C(=O)N1)(=O)=O
39,acesulfame_potassium_CH3_CH3,2.11,S1(OC(C)=C(C)C(=O)N1)(=O)=O
40,acesulfame_potassium_CH3_H,1.3,S1(OC=C(C)C(=O)N1)(=O)=O
41,acesulfame_potassium_H_CH3,2.19,S1(OC(=CC(=O)N1)C)(=O)=O
42,acesulfame_potassium_H_CH3CH2,2.18,S1(OC(=CC(=O)N1)CC)(=O)=O
43,acesulfame_potassium_H_H,1,S1(OC=CC(=O)N1)(=O)=O
44,albiziasaponin_B,2.78,O1C(COC2OCC(O)C(O)C2O)C(O)C(O)C(OC2OC(CO)C(O)C(O)C2O)C1OC1CC[C@]2(C(CC[C@@]3(C2CC=C2C4[C@@]5(CC(OC5=O)C(C4)(C)C)C(O)C[C@@]23C)C)C1(C)C)C
45,arabinose,-0.16,OC(C(O)CO)C(O)C=O
46,asp_1,0.57,Fc1ccc(cc1)CCNC(=O)C(N)CC(O)=O
47,asp_10,1.43,OC(=O)CC(N)C(=O)NC(CCCCC)C
48,asp_100,1.48,O(C(=O)CC)CC(NC(=O)C(N)CC(O)=O)CC
49,asp_101,1.38,O(C(=O)C(C)C)CC(NC(=O)C(N)CC(O)=O)CC
50,asp_102,1.38,O(C(=O)C1CC1)CC(NC(=O)C(N)CC(O)=O)CC
51,asp_103,1.4,O(C(=O)C1CCC1)CC(NC(=O)C(N)CC(O)=O)CC
52,asp_104,0.48,O(C(=O)C)CC(NC(=O)C(N)CC(O)=O)C(O)C
53,asp_105,1.21,O(C(=O)CC)CC(NC(=O)C(N)CC(O)=O)C(O)C
54,asp_106,1.58,O(C(=O)C)CC(NC(=O)C(N)CC(O)=O)C(C)C
55,asp_107,1.6,O(C(=O)CC)CC(NC(=O)C(N)CC(O)=O)C(C)C
56,asp_108,1.1,O(C(=O)C(C)C)CC(NC(=O)C(N)CC(O)=O)C(C)C
57,asp_109,1.22,O(C(=O)C1CC1)CC(NC(=O)C(N)CC(O)=O)C(C)C
58,asp_11,1.54,OC(=O)CC(N)C(=O)NC(CCC(C)C)C
59,asp_110,1.06,O(C(=O)C1CCC1)CC(NC(=O)C(N)CC(O)=O)C(C)C
60,asp_112,0.66,O(C(=O)C)CC(NC(=O)C(N)CC(O)=O)CCC
61,asp_12,1.56,OC(=O)CC(N)C(=O)NC(CCCCC)C
62,asp_122,0.91,O(C(=O)C)CC(NC(=O)C(N)CC(O)=O)C(OC)=O
63,asp_123,1.53,O(C(=O)CC)CC(NC(=O)C(N)CC(O)=O)C(OC)=O
64,asp_124,1.43,O(C(=O)CCC)CC(NC(=O)C(N)CC(O)=O)C(OC)=O
65,asp_125,1.65,O(C(=O)C(C)C)CC(NC(=O)C(N)CC(O)=O)C(OC)=O
66,asp_126,1.81,O(C(=O)C(C)(C)C)CC(NC(=O)C(N)CC(O)=O)C(OC)=O
67,asp_128,1.16,O(C(=O)CC(NC(=O)C(N)CC(O)=O)C)CC
68,asp_129,0.84,O(C(C)C)C(=O)CC(NC(=O)C(N)CC(O)=O)C
69,asp_13,1.85,OC(=O)CC(N)C(=O)NC(CCC(C)C)C
70,asp_130,0.6,O(C(CC)C)C(=O)CC(NC(=O)C(N)CC(O)=O)C
71,asp_131,0.68,O(C(C)(C)C)C(=O)CC(NC(=O)C(N)CC(O)=O)C
72,asp_132,0.64,O(C(=O)CC(NC(=O)C(N)CC(O)=O)C)C1CCCCC1
73,asp_133,0.88,O(C(=O)CC(NC(=O)C(N)CC(O)=O)C)CC
74,asp_134,0.73,O(C(CC)C)C(=O)CCNC(=O)C(N)CC(O)=O
75,asp_135,0.36,O(C(C)(C)C)C(=O)CCNC(=O)C(N)CC(O)=O
76,asp_136,0.6,O(C(CC)CC)C(=O)CCNC(=O)C(N)CC(O)=O
77,asp_137,0.68,O(C(CCC)C)C(=O)CCNC(=O)C(N)CC(O)=O
78,asp_138,1.16,O(C(=O)CCNC(=O)C(N)CC(O)=O)C1CCCC1
79,asp_139,1.22,O(C(=O)CCNC(=O)C(N)CC(O)=O)C1CCCCC1
80,asp_14,1.14,O(CCC(NC(=O)C(N)CC(O)=O)C)CC
81,asp_140,0.18,O(C(C)C)C(=O)C(CNC(=O)C(N)CC(O)=O)C
82,asp_141,0.51,O(C(C)(C)C)C(=O)C(CNC(=O)C(N)CC(O)=O)C
83,asp_142,0.88,O(C(=O)C(CNC(=O)C(N)CC(O)=O)C)C1CCCC1
84,asp_143,0.94,O(C(=O)C(CNC(=O)C(N)CC(O)=O)C)C1CCCCC1
85,asp_15,1.17,OC(=O)CC(N)C(=O)NC(CCCCCC)C
86,asp_153,0.43,O(C(=O)CC(NC(=O)C(N)CC(O)=O)C)C
87,asp_154,0.11,O(C(=O)CCNC(=O)C(N)CC(O)=O)C
88,asp_155,0.7,O(C(C)C)C(=O)CCNC(=O)C(N)CC(O)=O
89,asp_156,0.6,O(C(=O)CC(NC(=O)C(N)CC(O)=O)C(OC)=O)CC
90,asp_157,1.3,O(C(C)(C)C)C(=O)CC(NC(=O)C(N)CC(O)=O)C(OC)=O
91,asp_159,1.04,O(C(=O)C(NC(=O)C(N)CC(O)=O)CC)C
92,asp_16,0.89,OC(=O)CC(N)C(=O)NC(Cc1ccccc1)CC
93,asp_160,1.49,O(C(=O)C(NC(=O)C(N)CC(O)=O)CO)C
94,asp_161,1.92,O(C(=O)C(NC(=O)C(N)CC(O)=O)CO)CC
95,asp_163,1.96,O(C(C)C)C(=O)C(NC(=O)C(N)CC(O)=O)CO
96,asp_164,1.75,O(C(=O)C(NC(=O)C(N)CC(O)=O)CO)CCCC
97,asp_165,2.21,O(C(=O)C(NC(=O)C(N)CC(O)=O)CO)CC(C)C
98,asp_166,1.72,O(C(=O)C(NC(=O)C(N)CC(O)=O)CO)C1CCCCC1
99,asp_167,1.26,O(C(=O)C(NC(=O)C(N)CC(O)=O)C(O)C)C
100,asp_168,1.93,O(C(=O)C(NC(=O)C(N)CC(O)=O)C(O)C)CC
101,asp_169,2.08,O(C(=O)C(NC(=O)C(N)CC(O)=O)C(O)C)CCC
102,asp_17,1.19,OC(=O)CC(N)C(=O)NC(Cc1ccccc1)(C)C
103,asp_170,1.93,O(C(C)C)C(=O)C(NC(=O)C(N)CC(O)=O)C(O)C
104,asp_171,1.41,O(C(=O)C(NC(=O)C(N)CC(O)=O)C(O)C)CCCC
105,asp_172,1.97,O(C(=O)C(NC(=O)C(N)CC(O)=O)C(O)C)CC(C)C
106,asp_173,1.44,O(C(=O)C(NC(=O)C(N)CC(O)=O)C(O)C)C1CCCCC1
107,asp_174,0.71,O(C(=O)C(NC(=O)C(N)CC(O)=O)C(O)C)C
108,asp_175,0.66,O(C(=O)C(NC(=O)C(N)CC(O)=O)C(O)C)CC
109,asp_176,1.51,O(C(=O)C(NC(=O)C(N)CC(O)=O)C(O)C)CCC
110,asp_177,0.91,O(C(C)C)C(=O)C(NC(=O)C(N)CC(O)=O)C(O)C
111,asp_178,1.23,O(C(=O)C(NC(=O)C(N)CC(O)=O)C(O)C)CCCC
112,asp_179,1.36,O(C(=O)C(NC(=O)C(N)CC(O)=O)C(O)C)CC(C)C
113,asp_18,1.58,OC(=O)CC(N)C(=O)NC(C(CCCCC)C)C
114,asp_180,1.31,O(C(=O)C(NC(=O)C(N)CC(O)=O)C(O)C)C1CCCCC1
115,asp_181,1.86,O(C(=O)C(NC(=O)C(N)CC(O)=O)CC)CCC
116,asp_182,0.68,O(C(=O)CNC(=O)C(N)CC(O)=O)C
117,asp_183,0.98,O(C(=O)CNC(=O)C(N)CC(O)=O)CCC
118,asp_184,1.02,O(C(=O)CNC(=O)C(N)CC(O)=O)C1CCCCC1
119,asp_185,1.56,O(C(=O)C(NC(=O)C(N)CC(O)=O)CCC)CCC
120,asp_186,1.2,O(C(=O)C(NC(=O)C(N)CC(O)=O)C)C
121,asp_187,1.75,O(C(=O)C(NC(=O)C(N)CC(O)=O)C)CC
122,asp_188,2.1,O(C(=O)C(NC(=O)C(N)CC(O)=O)C)CCC
123,asp_189,1.95,O(C(C)C)C(=O)C(NC(=O)C(N)CC(O)=O)C
124,asp_19,2.11,O(C(=O)C(NC(=O)C(N)CC(O)=O)Cc1ccccc1)C
125,asp_190,0.9,O(C(=O)C(NC(=O)C(N)CC(O)=O)C)CCCC
126,asp_191,0.68,O(C(=O)C(NC(=O)C(N)CC(O)=O)C)CCCCC
127,asp_192,2.15,O(C(C)C)C(=O)C(NC(=O)C(N)CC(O)=O)CC
128,asp_193,2.15,O(C(C)C)C(=O)C(NC(=O)C(N)CC(O)=O)C(C)C
129,asp_194,1.43,O(C(C)C)C(=O)C(NC(=O)C(N)CC(O)=O)CCC
130,asp_197,2.03,O(C(C)(C)C)C(=O)C(NC(=O)C(N)CC(O)=O)C(OC)=O
131,asp_198,2.79,O(C(CC)CC)C(=O)C(NC(=O)C(N)CC(O)=O)C(OC)=O
132,asp_199,3.06,O(C(CC)CC)C(=O)C(NC(=O)C(N)CC(O)=O)C(OC)=O
133,asp_2,0.85,OC(=O)CC(N)C(=O)NCCC1CCCCC1
134,asp_20,2.3,O(C(=O)C(NC(=O)C(N)CC(O)=O)CC1CCCCC1)C
135,asp_200,2.92,O(C(=O)C(NC(=O)C(N)CC(O)=O)C(OC)=O)C1CCCC1
136,asp_201,3.14,O(C(=O)C(NC(=O)C(N)CC(O)=O)C(OC)=O)C1CCCCC1
137,asp_204,3.02,O(C(=O)C(NC(=O)C(N)CC(O)=O)C(OC)=O)C1CC(CCC1)C
138,asp_207,2.76,O(C(=O)C(NC(=O)C(N)CC(O)=O)C(OC)=O)C1CC(CC(C1)C)(C)C
139,asp_208,3.16,O(C(OC(=O)C(NC(=O)C(N)CC(O)=O)C(OC)=O)=O)C1CC2CC[C@]1(C)C2(C)C
140,asp_209,4.79,O(C(OC(=O)C(NC(=O)C(N)CC(O)=O)C(OC)=O)=O)C1CC2CC[C@]1(C)C2(C)C
141,asp_21,1.49,O(C(=O)C(NC(=O)C(N)CC(O)=O)CCCC)C
142,asp_211,2.32,O(C(C)(C)C)C(=O)C(NC(=O)C(N)CC(O)=O)C(OCC)=O
143,asp_212,2.44,O(C(=O)C(NC(=O)C(N)CC(O)=O)C(OCC)=O)C1CCCC1
144,asp_213,2.68,O(C(=O)C(NC(=O)C(N)CC(O)=O)C(OCC)=O)C1CCCCC1
145,asp_214,3.09,O(C(=O)C(NC(=O)C(N)CC(O)=O)C(OCC)=O)C1CCCCC1C
146,asp_215,4.05,O(C(OC(=O)C(NC(=O)C(N)CC(O)=O)C(OCC)=O)=O)C1CC2CC[C@]1(C)C2(C)C
147,asp_22,2.11,O(C(=O)C(NC(=O)C(N)CC(O)=O)CCC(C)C)C
148,asp_23,1.9,O(C(=O)C(NC(=O)C(N)CC(O)=O)CCCCC)C
149,asp_24,2.07,O(C(=O)C(NC(=O)C(N)CC(O)=O)CCCCCC)C
150,asp_3,1.56,OC(=O)CC(N)C(=O)NC(Cc1ccccc1)C
151,asp_4,0.89,OC(=O)CC(N)C(=O)NC(Cc1ccc(cc1)C)C
152,asp_5,1.19,O(CC(NC(=O)C(N)CC(O)=O)C)c1ccccc1
153,asp_52,0.27,O(C(=O)C(NC(=O)C(N)CC(O)=O)CCCCNOC(=O)C)C
154,asp_53,0.25,O(C(=O)C(NC(=O)C(N)CC(O)=O)CCCNOC(=O)C)C
155,asp_55,1.15,O(C(=O)C(CC(NC(=O)C(N)CC(O)=O)C(OC)=O)C)C
156,asp_56,1.16,O(C(=O)C(NC(=O)C(N)CC(O)=O)C(O)CCC)C
157,asp_57,0.75,O(C(=O)C(NC(=O)C(N)CC(O)=O)C(O)CCC)C
158,asp_58,0.13,O(C(=O)CCCNC(=O)C(N)CC(O)=O)C
159,asp_6,1.5,Fc1ccc(cc1)CC(NC(=O)C(N)CC(O)=O)C
160,asp_60,1.6,S(CC(NC(=O)C(N)CC(O)=O)C(OC)=O)CC
161,asp_61,2.11,S(CC(NC(=O)C(N)CC(O)=O)C(OC)=O)CCC
162,asp_62,2.23,S(C(C)C)CC(NC(=O)C(N)CC(O)=O)C(OC)=O
163,asp_63,2.95,S(C(C)(C)C)CC(NC(=O)C(N)CC(O)=O)C(OC)=O
164,asp_64,2.15,O(C(C)(C)C)CC(NC(=O)C(N)CC(O)=O)C(OC)=O
165,asp_65,2.15,Oc1ccc(cc1)CC(NC(=O)C(N)CC(O)=O)C(OC)=O
166,asp_66,2,O(C(=O)C(NC(=O)C(N)CC(O)=O)CCC(OC)=O)C
167,asp_67,0.28,O(C(=O)C)CCNC(=O)C(N)CC(O)=O
168,asp_68,0.61,O(C(=O)CC)CCNC(=O)C(N)CC(O)=O
169,asp_69,0.56,O(C(=O)CCC)CCNC(=O)C(N)CC(O)=O
170,asp_7,1.16,o1cccc1CC(NC(=O)C(N)CC(O)=O)C
171,asp_70,1.16,O(C(=O)C(C)C)CCNC(=O)C(N)CC(O)=O
172,asp_71,1.03,O(C(=O)C1CC1)CCNC(=O)C(N)CC(O)=O
173,asp_72,0.99,O(C(=O)C1CCC1)CCNC(=O)C(N)CC(O)=O
174,asp_73,1.36,O(C(=O)CC(C)C)CCNC(=O)C(N)CC(O)=O
175,asp_74,1.61,O(C(=O)C)CC(NC(=O)C(N)CC(O)=O)C
176,asp_75,1.86,O(C(=O)CC)CC(NC(=O)C(N)CC(O)=O)C
177,asp_76,1.85,O(C(=O)C=C)CC(NC(=O)C(N)CC(O)=O)C
178,asp_77,1.58,O(C(=O)CCC)CC(NC(=O)C(N)CC(O)=O)C
179,asp_78,1.98,O(C(=O)C(C)C)CC(NC(=O)C(N)CC(O)=O)C
180,asp_79,1.99,O(C(=O)C(C)=C)CC(NC(=O)C(N)CC(O)=O)C
181,asp_8,1.57,OC(=O)CC(N)C(=O)NC(CC1CCCCC1)C
182,asp_80,2.18,O(C(=O)C1CC1)CC(NC(=O)C(N)CC(O)=O)C
183,asp_81,0.6,O(C(=O)CCCC)CC(NC(=O)C(N)CC(O)=O)C
184,asp_82,2.08,O(C(=O)C(CC)C)CC(NC(=O)C(N)CC(O)=O)C
185,asp_83,2.08,O(C(=O)CC(C)C)CC(NC(=O)C(N)CC(O)=O)C
186,asp_84,2.28,O(C(=O)C(C)(C)C)CC(NC(=O)C(N)CC(O)=O)C
187,asp_85,1.68,O(C(=O)C1CC1C)CC(NC(=O)C(N)CC(O)=O)C
188,asp_86,2.24,O(C(=O)C1CCC1)CC(NC(=O)C(N)CC(O)=O)C
189,asp_87,1.53,O(C(=O)C(CC)CC)CC(NC(=O)C(N)CC(O)=O)C
190,asp_88,2.13,O(C(=O)C1CCC1C)CC(NC(=O)C(N)CC(O)=O)C
191,asp_89,1.7,O(C(=O)C1CCCC1)CC(NC(=O)C(N)CC(O)=O)C
192,asp_9,1.6,OC(=O)CC(N)C(=O)NC(CCCC)C
193,asp_90,1.23,O(C(=O)C)CC(NC(=O)C(N)CC(O)=O)CO
194,asp_91,1.99,O(C(=O)CC)CC(NC(=O)C(N)CC(O)=O)CO
195,asp_92,1.96,O(C(=O)C1CC1)CC(NC(=O)C(N)CC(O)=O)CO
196,asp_93,1.48,O(C(=O)C(C)C)CC(NC(=O)C(N)CC(O)=O)CO
197,asp_94,0.58,O(C(=O)CCC)CC(NC(=O)C(N)CC(O)=O)CO
198,asp_95,1.71,O(C(=O)C1CCC1)CC(NC(=O)C(N)CC(O)=O)CO
199,asp_96,1.3,O(C(=O)CC(C)C)CC(NC(=O)C(N)CC(O)=O)CO
200,asp_97,1.21,O(C(=O)C(CC)C)CC(NC(=O)C(N)CC(O)=O)CO
201,asp_98,0.92,O(C(=O)C1CCCC1)CC(NC(=O)C(N)CC(O)=O)CO
202,asp_99,1.16,O(C(=O)C)CC(NC(=O)C(N)CC(O)=O)CC
203,aspartame,2.25,O(C(=O)C(NC(=O)C(N)CC(O)=O)Cc1ccccc1)C
204,baiyunoside,2.7,O1[C@@H](OC2CC[C@@]3([C@H](CCC(C)=C3CCc3ccoc3)C2(C)C)C)C(O[C@@H]2OCC(O)C(O)C2O)C(O)C(O)C1CO
205,3-2_4_6-tribromo-3-carbamoylphenyl_propanoic_acid,3.6,Brc1c(CCC(O)=O)c(Br)cc(Br)c1C(=O)N
206,bernardame,5.3,OC(=O)CN/C(=N/c1ccc(cc1)C#N)/NCc1cc(ccc1)C
207,cyclamate,1.48,S(O)(=O)(=O)NC1CCCCC1
208,cyclocarioside_A,2.3,O1C(COC(=O)C)C(O)C(O)C1OC1CC[C@]2(C(CC[C@@]3(C2CC(OC2OC(C)C(O)C(O)C2O)C2[C@@]3(CCC2[C@@]2(OC(CC2)C(O)(C)C)C)C)C)C1(C)C)C
209,dulcin,2.3,O(CC)c1ccc(NC(=O)N)cc1
210,dulcoside_A,1.93,O1C(C)C(O)C(O)C(O)C1OC1C(O)C(O)C(OC1O[C@@]12CCC3[C@](CC1=C)(C2)CCC1[C@@](CCC[C@]13C)(C(OC1OC(CO)C(O)C(O)C1O)=O)C)CO
211,erythritol,-0.2,OC(C(O)CO)CO
212,fructose,0.16,OC(C(O)C(=O)CO)C(O)CO
213,fucose,-0.16,OC(C(O)C(O)C)C(O)C=O
214,galactitol,-0.24,OC(C(O)C(O)CO)C(O)CO
215,galactose,-0.19,OC(C(O)C(O)C=O)C(O)CO
216,gaudichaudioside_A,1.74,O1CC(O)C(O)C(O)C1OC1CC(C=O)=C(CC\C(=C\CO)\C)[C@]2(C1[C@](CCC2)(CO)C)C
217,glucose,-0.22,OC(C(O)C(O)C=O)C(O)CO
218,glycyrrhizin,1.96,O1[C@@H](OC2CC[C@@]3([C@@H]4[C@@](CC[C@H]3C2(C)C)(C)[C@]2(CC[C@]3([C@H](C2=CC4=O)C[C@](CC3)(C(O)=O)C)C)C)C)C(O[C@@H]2OC(C(O)=O)C(O)C(O)C2O)C(O)C(O)C1C(O)=O
219,hematoxylin,2.08,O1c2c([C@H]3c4cc(O)c(O)cc4C[C@]3(O)C1)ccc(O)c2O
220,hesperinin_glucoside_DHC,2,O1C(CO)C(O)C(O)C(O)C1Oc1cc(O)c(C(=O)CCc2cc(O)c(OC)cc2)c(O)c1
221,homoeohesperidin_DHC,3,O1C(CO)C(O)C(O)C(O[C@H]2OC(C)C(O)C(O)C2O)C1Oc1cc(O)c(C(=O)CCc2cc(O)c(OCC)cc2)c(O)c1
222,isomalt,-0.27,O1C(CO)C(O)C(O)C(O)C1OCC(O)C(O)C(O)C(O)CO
223,isomaltulose,-0.32,O1C(CO)C(O)C(O)C(O)C1OCC(O)C(O)C(O)C(=O)CO
224,isovanillic_1,2.3,O1CC(Cc2c1cccc2)c1cc(O)c(OC)cc1
225,isovanillic_10,2.3,S1c2c(CCC1c1cc(O)c(OC)cc1)cccc2
226,isovanillic_11,4,S1Cc2c(SC1c1cc(O)c(OC)cc1)cccc2
227,isovanillic_12,2.65,S1c2c(SCC1c1cc(O)c(OC)cc1)cccc2
228,isovanillic_13,2.7,O1c2c(C(=O)C(OC(=O)C)C1c1cc(O)c(OC)cc1)c(O)cc(O)c2
229,isovanillic_15,2.3,S1c2c(COC1c1cc(O)c(O)cc1)cccc2
230,isovanillic_16,2,S1c2c(COC1c1cc(O)ccc1)cccc2
231,isovanillic_17,1.7,S1(=O)(=O)CC(Oc2c1cccc2)c1cc(O)c(OC)cc1
232,isovanillic_18,2.18,O(C)c1ccc(cc1O)C(Oc1ccccc1)O
233,isovanillic_19,2.7,S1CC(Oc2c1cc(O)cc2)c1cc(O)c(OC)cc1
234,isovanillic_2,2.54,O1Cc2c(CC1c1cc(O)c(OC)cc1)cccc2
235,isovanillic_20,2.82,O(C)c1ccc(cc1O)CCC(=O)c1c(O)cc(O)cc1O
236,isovanillic_21,1.9,O(C)c1ccc(cc1O)CCC(=O)c1cc(ccc1)C(O)=O
237,isovanillic_22,2.3,S1c2c(SC1c1cc(O)c(OC)cc1)cccc2
238,isovanillic_23,2.48,S1c2c(OC1c1cc(O)c(OC)cc1)cccc2
239,isovanillic_24,2.08,O1c2cc(O)c(O)cc2C2c3c(OC[C@@]12O)c(O)c(O)cc3
240,isovanillic_25,2,O1c2cc(OC)ccc2C2c3c(OC[C@@]12O)cccc3
241,isovanillic_26,1.7,O(C)c1cc2CCC3C4CCC[C@]4(CCC3c2cc1O)C
242,isovanillic_3,2.54,O1c2c(CCC1c1cc(O)c(OC)cc1)cccc2
243,isovanillic_4,2.65,O1c2c(OCC1c1cc(O)c(OC)cc1)cccc2
244,isovanillic_6,2.7,S1Cc2c(OC1c1cc(O)c(OC)cc1)cccc2
245,isovanillic_7,2.4,S1CC(Oc2c1cccc2)c1cc(O)c(OC)cc1
246,isovanillic_9,3.3,S1c2c(OCC1c1cc(O)c(OC)cc1)cccc2
247,lactitol,-0.46,O1C(CO)C(O)C(O)C(O)C1O[C@@H](C(O)C(O)CO)C(O)CO
248,lactose,-0.6,O1C(CO)C(O)C(O)C(O)C1O[C@@H](C(O)C(O)C=O)C(O)CO
249,lactulose,-0.3,O1C(CO)C(O)C(O)C(O)C1O[C@@H](C(O)C(=O)CO)C(O)CO
250,leucrose,-0.3,O1C(CO)C(O)C(O)C(O)C1OC(C(O)C(O)C(=O)CO)CO
251,lugduname,5.35,O1c2c(OC1)cccc2C\N=C(\Nc1ccc(cc1)C#N)/NCC(O)=O
252,maltitol,-0.06,O1C(CO)C(O)C(O)C(O)C1O[C@@H](C(O)C(O)CO)C(O)CO
253,maltose,-0.41,O1C(CO)C(O)C(O)C(O)C1O[C@@H](C(O)C(O)C=O)C(O)CO
254,mannitol,-0.3,OC(C(O)C(O)CO)C(O)CO
255,mannose,-0.28,O1C(CO)C(O)C(O)C(O)C1O
256,mogroside_II,1.92,O1C(CO)C(O)C(O)C(O)C1OC(C(O)(C)C)CCC(C)[C@H]1CC[C@]2([C@@H]3CC=C4[C@H](CCC(O[C@H]5OC(CO)C(O)C(O)C5O)C4(C)C)[C@]3(C)C(O)C[C@@]12C)C
257,mogroside_IV,2.49,O1C(CO)C(O)C(O)C(O[C@H]2OC(CO)C(O)C(O)C2O)C1OC(C(O)(C)C)CCC(C)[C@@H]1CC[C@@]2([C@@H]3CC=C4[C@@H](CCC(O[C@@H]5OC(COC6OC(CO)C(O)C(O)C6O)C(O)C(O)C5O)C4(C)C)[C@]
258,mogroside_V,2.53,O1C(COC2OC(CO)C(O)C(O)C2O)C(O)C(O)C(O[C@@H]2OC(CO)C(O)C(O)C2O)C1OC(C(O)(C)C)CCC(C)[C@@H]1CC[C@]2([C@@H]3CC=C4[C@H](CCC(O[C@H]5OC(COC6OC(CO)C(O)C(O)C6O)C(O)C(
259,naringin_DHC,2,O1C(CO)C(O)C(O)C(OC2OC(C)C(O)C(O)C2O)C1Oc1cc(O)c(C(=O)CCc2ccc(O)cc2)c(O)c1
260,neoeriocitrin_DHC,2,O1C(CO)C(O)C(O)C(O[C@H]2OC(C)C(O)C(O)C2O)C1Oc1cc(O)c(C(=O)CCc2cc(O)c(O)cc2)c(O)c1
261,neohesperidin_DHC,3.04,O1C(CO)C(O)C(O)C(O[C@H]2OC(C)C(O)C(O)C2O)C1Oc1cc(O)c(C(=O)CCc2cc(O)c(OC)cc2)c(O)c1
262,neotame,3.89,O(C(=O)C(NC(=O)C(NCCC(C)(C)C)CC(O)=O)Cc1ccccc1)C
263,osladin,2.65,O1C(CO)C(O)C(O)C(OC2OC(C)C(O)C(O)C2O)C1OC1CC2[C@@](C3C(CC2=O)C2CCC(C(C)C4OC(OC5OC(C)C(O)C(O)C5O)C(CC4)C)[C@@]2(CC3)C)(CC1)C
264,phyllodulcin_1,2.85,O1C(Cc2c(C1=O)c(O)ccc2)c1cc(O)c(OC)cc1
265,phyllodulcin_11,2.4,O(C)c1ccc(NCc2ccccc2)cc1O
266,phyllodulcin_2,2,O1C(Cc2c(cccc2)C1=O)c1cc(O)c(OC)cc1
267,phyllodulcin_4,2.54,O1c2c(C(=O)CC1c1cc(O)c(OC)cc1)c(O)ccc2
268,phyllodulcin_5,2.18,O1c2c(C(=O)CC1c1cc(O)c(OCC)cc1)c(O)ccc2
269,phyllodulcin_6,2,O1C(Oc2c(cccc2)C1=O)c1cc(O)c(OC)cc1
270,phyllodulcin_7,2.48,S1c2c(cccc2)C(OC1c1cc(O)c(OC)cc1)=O
271,phyllodulcin_8,2.48,O(C)c1ccc(cc1O)CCc1ccccc1
272,polypodoside_A,2.78,O1[C@H](OC2CC[C@]3([C@H](C2)C(=O)C=C2[C@H]4CC[C@H](C(C)[C@@H]5OC(O[C@H]6OC(C)C(O)C(O)C6O)C(CC5)C)[C@@]4(CC[C@H]23)C)C)C(O[C@H]2OC(C)C(O)C(O)C2O)C(O)C(O)C1CO
273,prunin_DHC,1.6,O1C(CO)C(O)C(O)C(O)C1Oc1cc(O)c(C(=O)CCc2ccc(O)cc2)c(O)c1
274,psicose,-0.15,O1CC(O)C(O)C(O)[C@]1(O)CO
275,pterocaryoside_A,1.8,O1[C@@H](OC2[C@@H]3[C@](CC[C@H]3[C@](O)(C\C=C\C(O)(C)C)C)(C)[C@]3([C@H](C2)[C@@](CCC(O)=O)(C)C(CC3)C(C)=C)C)C(O)C(O)C(O)C1C
276,pterocaryoside_B,1.88,O1CC(O)C(O)C(O)[C@@H]1OC1[C@@H]2[C@@](CC[C@@H]2[C@@](O)(C\C=C\C(O)(C)C)C)(C)[C@]2([C@@H](C1)[C@@](CCC(O)=O)(C)C(CC2)C(C)=C)C
277,raffinose,-0.6,O1C(COC2OC(CO)C(O)C(O)C2O)C(O)C(O)C(O)C1O[C@@]1(OC(CO)C(O)C1O)CO
278,rebaudioside_A,2.47,O1C(CO)C(O)C(O)C(O)C1OC(=O)[C@]1([C@H]2CC[C@@]34[C@H](CC[C@](O[C@H]5OC(CO)C(O)C(O[C@H]6OC(CO)C(O)C(O)C6O)C5O[C@@H]5OC(CO)C(O)C(O)C5O)(C3)C(C4)=C)[C@@]2(CCC1)
279,rebaudioside_B,2.51,O1[C@H](OC2C(O)C(O[C@@H](O[C@]34CC[C@H]5[C@@](CC3=C)(C4)CC[C@@H]3[C@](CCC[C@]35C)(C(O)=O)C)C2O[C@H]2OC(CO)C(O)C(O)C2O)CO)C(O)C(O)C(O)C1CO
280,rebaudioside_C,1.93,O1C(CO)C(O)C(O)C(O)C1OC(=O)[C@@]1([C@H]2CC[C@@]34[C@H](CC[C@@](O[C@H]5OC(CO)C(O)C(O[C@@H]6OC(CO)C(O)C(O)C6O)C5O[C@@H]5OC(C)C(O)C(O)C5O)(C3)C(C4)=C)[C@@]2(CCC
281,rebaudioside_D,2.51,O1C(CO)C(O)C(O)C(O[C@H]2OC(CO)C(O)C(O)C2O)C1OC(=O)[C@@]1([C@@H]2CC[C@@]34[C@@H](CC[C@](O[C@@H]5OC(CO)C(O)C(O[C@H]6OC(CO)C(O)C(O)C6O)C5O[C@H]5OC(CO)C(O)C(O)C5
282,rebaudioside_E,2.35,O1C(CO)C(O)C(O)C(O)C1OC1C(O)C(O)C(OC1O[C@]12CCC3[C@](CC1=C)(C2)CCC1[C@](CCC[C@]13C)(C(OC1OC(CO)C(O)C(O)C1OC1OC(CO)C(O)C(O)C1O)=O)C)CO
283,rebaudioside_F,2.05,O1C(CO)C(O)C(O)C(O)C1OC(=O)[C@]1([C@@H]2CC[C@@]34[C@@H](CC[C@@](O[C@H]5OC(CO)C(O)C(O[C@H]6OC(CO)C(O)C(O)C6O)C5O[C@H]5OCC(O)C(O)C5O)(C3)C(C4)=C)[C@@]2(CCC1)C)
284,rhamnose,-0.5,O1C(C)C(O)C(O)C(O)C1O
285,ribose,-0.15,OC(C(O)CO)C(O)C=O
286,rubusoside,2.06,O1C(CO)C(O)C(O)C(O)C1OC(=O)[C@@]1([C@@H]2CC[C@]34[C@@H](CC[C@@](O[C@@H]5OC(CO)C(O)C(O)C5O)(C3)C(C4)=C)[C@@]2(CCC1)C)C
287,saccharin,2.57,S1(=O)(=O)NC(=O)c2c1cccc2
288,selligueain_A,1.54,O1c2c(CC(O)C1c1ccc(O)cc1)c(O)cc(O)c2C1c2c(OC(C1O)c1ccc(O)cc1)c1[C@@H]3c4c(O[C@@](Oc1cc2O)([C@H]3O)c1ccc(O)cc1)cc(O)cc4O
289,siamenoside_I,2.75,O1C(COC2OC(CO)C(O)C(O)C2O)C(O)C(O)C(O[C@H]2OC(CO)C(O)C(O)C2O)C1OC(C(O)(C)C)CCC(C)[C@@H]1CC[C@@]2([C@@H]3CC=C4[C@@H](CCC(O[C@H]5OC(CO)C(O)C(O)C5O)C4(C)C)[C@]3
290,sorbitol,-0.24,OC(C(O)C(O)CO)C(O)CO
291,sorbose,-0.22,OC(C(O)C(=O)CO)C(O)CO
292,stachyose,-0.66,O1C(COC2OC(COC3OC(CO)C(O)C(O)C3O)C(O)C(O)C2O)C(O)C(O)C(O)C1O[C@@]1(OC(CO)C(O)C1O)CO
293,steviolbioside,2.05,O1[C@@H](OC2[C@H](OC(CO)C(O)C2O)O[C@@]23CC[C@@H]4[C@@](CC2=C)(C3)CC[C@H]2[C@@](CCC[C@]24C)(C(O)=O)C)C(O)C(O)C(O)C1CO